HEADER
"PSFversion" "1.00"
"N143n N142n N141n N140n N139n N138n N137n N136n N135n N134n N133n N132n N131n N130n N129n N128n N127n N126n N125n N124n N123n N122n N121n N120n N119n N118n N117n N116n N115n N114n N113n N112n N111n N110n N109n N108n N107n N106n N105n N104n N103n N102n N101n N89n N88n N92n N87n N86n N91n N90n N85n N97n N84n N96n N95n N93n N74n N94n N73n N72n N81n N83n N98n N78n N76n N99n N77n N100n N79n N82n N80n N75n" "NCSU_Analog_Parts_nmos4_spectre"
"P145n P144n P143n P142n P141n P140n P139n P138n P137n P136n P135n P134n P133n P132n P131n P130n P129n P128n P127n P126n P125n P124n P123n P122n P121n P120n P119n P118n P117n P116n P115n P114n P113n P112n P111n P110n P109n P108n P107n P106n P105n P104n P103n P102n P91n P90n P96n P94n P95n P89n P88n P92n P93n P87n P98n P86n P85n P74n P73n P72n P83n P97n P80n P77n P81n P100n P79n P99n P82n P84n P101n P75n" "NCSU_Analog_Parts_pmos4_spectre"
