HEADER
"PSFversion" "1.00"
"design" "(\"Design\" \"flip_flop_simulate\" \"schematic\" \"\")"
"simulator" "spectre"
"temperature" "27"
"host" ""
"date" "Apr 26 14:03:38 2022"
"title" ""
"analysisList" "()"
END
