HEADER
"PSFversion" "1.00"
"simulator" "spectre"
"version" "18.1.0.421.isr9"
"date" "2:03:39 PM, Tue Apr 26, 2022"
"design" "// Generated for: spectre"
"analysis type" "info.subckts"
"analysis name" "subckts"
"analysis description" "Circuit Information"
"xVecSorted" "unknown"
"tolerance.relative" 0.00100000
TYPE
"subckt" STRUCT(
"subckt_params" STRING *
"subckt_terminals" STRING *
"subckt_instances" STRING *
) PROP(
"key" "sub"
)
VALUE
"flip_flop" "subckt" (
""
"CLK D GND Q VDD _CLK"
"I0"
)
END
