HEADER
"PSFversion" "1.00"
"P17n P16n P15n P14n P13n P12n P11n P10n P1n P0n" "NCSU_Analog_Parts_pmos4_spectre"
"N17n N16n N15n N14n N1n N0n N13n N12n N11n N10n" "NCSU_Analog_Parts_nmos4_spectre"
"CLKv" ":1v"
"Dv" ":2v"
"GNDv" ":3v"
"Qv" ":4v"
"VDDv" ":5v"
"_CLKv" ":6v"
