HEADER
"PSFversion" "1.00"
"__NEXT_FILE__" "flip_flop_simulate"
