HEADER
"PSFversion" "1.00"
"I2n I1n I0n" "nand2"
"I4n I3n" "xor2"
"Av" ":1v"
"Bv" ":2v"
"Cinv" ":3v"
"Coutv" ":4v"
"GNDv" ":5v"
"Sv" ":6v"
"VDDv" ":7v"
