HEADER
"PSFversion" "1.00"
"__NEXT_FILE__" "Design_1BitAdder_Simulate_schematic"
