HEADER
"PSFversion" "1.00"
"Time Stamp" "Apr 19 20:02:16 2022"
TYPE
"variable" STRUCT(
"value" FLOAT DOUBLE
) PROP( "key" "element" )
VALUE
"temp" "variable" ( 27 ) PROP( )
END
