HEADER
"PSFversion" "1.00"
"design" "(\"Design\" \"xor2_simulate\" \"schematic\" \"\")"
"simulator" "spectre"
"temperature" "27"
"host" ""
"date" "Apr 19 20:17:43 2022"
"title" ""
"analysisList" "()"
END
