HEADER
"PSFversion" "1.00"
"I0n" "Design_4BitAdder_schematic"
"V0n" "NCSU_Analog_Parts_vdc_spectre"
"C4n C3n C2n C1n C0n" "NCSU_Analog_Parts_cap_spectre"
"V13n V12n V11n V10n V9n V8n V7n V6n V5n" "NCSU_Analog_Parts_vpulse_spectre"
