HEADER
"PSFversion" "1.00"
"P0n" "NCSU_Analog_Parts_pmos4_spectre"
"N0n" "NCSU_Analog_Parts_nmos4_spectre"
"GNDv" ":1v"
"VDDv" ":2v"
"inv" ":3v"
"outv" ":4v"
