HEADER
"PSFversion" "1.00"
"design" "(\"Design\" \"4BitAdder_unit\" \"schematic\" \"\")"
"simulator" "spectre"
"temperature" "27"
"host" ""
"date" "Apr 28 00:21:01 2022"
"title" ""
"analysisList" "()"
END
