HEADER
"PSFversion" "1.00"
"design" "(\"Design\" \"inverter_simulate\" \"schematic\" \"\")"
"simulator" "spectre"
"temperature" "27"
"host" ""
"date" "Apr 19 16:54:45 2022"
"title" ""
"analysisList" "()"
END
