HEADER
"PSFversion" "1.00"
"design" "(\"Design\" \"4BitAdder_transistor\" \"schematic\" \"\")"
"simulator" "spectre"
"temperature" "27"
"host" ""
"date" "Apr 27 23:42:14 2022"
"title" ""
"analysisList" "()"
END
