HEADER
"PSFversion" "1.00"
"Time Stamp" "Apr 27 23:42:14 2022"
TYPE
"variable" STRUCT(
"value" FLOAT DOUBLE
) PROP( "key" "element" )
VALUE
"temp" "variable" ( 27 ) PROP( )
END
