HEADER
"PSFversion" "1.00"
"design" "(\"Design\" \"1BitAdder_Simulate\" \"schematic\" \"\")"
"simulator" "spectre"
"temperature" "27"
"host" ""
"date" "Apr 21 01:01:13 2022"
"title" ""
"analysisList" "()"
END
