HEADER
"PSFversion" "1.00"
"simulator" "spectre"
"version" "18.1.0.421.isr9"
"date" "1:01:16 AM, Thur Apr 21, 2022"
"design" "// Generated for: spectre"
"analysis type" "info.subckts"
"analysis name" "subckts"
"analysis description" "Circuit Information"
"xVecSorted" "unknown"
"tolerance.relative" 0.00100000
TYPE
"subckt" STRUCT(
"subckt_params" STRING *
"subckt_terminals" STRING *
"subckt_instances" STRING *
) PROP(
"key" "sub"
)
VALUE
"inverter" "subckt" (
""
"GND VDD in out"
"I0.I4.I1 I0.I4.I0 I0.I3.I1 I0.I3.I0"
)
"xor2" "subckt" (
""
"A B GND VDD Y"
"I0.I4 I0.I3"
)
"Design_1BitAdder_schematic" "subckt" (
""
"A B Cin Cout GND S VDD"
"I0"
)
"nand2" "subckt" (
""
"A B GND VDD Y"
"I0.I2 I0.I1 I0.I0"
)
END
