HEADER
"PSFversion" "1.00"
"P1n P0n" "NCSU_Analog_Parts_pmos4_spectre"
"N1n N0n" "NCSU_Analog_Parts_nmos4_spectre"
"Av" ":1v"
"Bv" ":2v"
"GNDv" ":3v"
"VDDv" ":4v"
"Yv" ":5v"
