HEADER
"PSFversion" "1.00"
"I0n" "nand2"
"V1n V0n" "NCSU_Analog_Parts_vpulse_spectre"
"V2n" "NCSU_Analog_Parts_vdc_spectre"
"C0n" "NCSU_Analog_Parts_cap_spectre"
